
Host: ZLZZHENG-MB1

Timers On : Mon Aug 10 11:05:27 2020
Timers Off: Mon Aug 10 11:07:14 2020

Wall Time:      106.70 seconds

                                                       Time (seconds)
Module                                       User      System        Wall        Calls

--------------------------------------------------------------------------------------

**************************************************************************************

Host: ZLZZHENG-MB1

Timers On : Mon Aug 10 11:08:28 2020
Timers Off: Mon Aug 10 11:08:30 2020

Wall Time:        1.25 seconds

                                                       Time (seconds)
Module                                       User      System        Wall        Calls

--------------------------------------------------------------------------------------

**************************************************************************************

Host: ZLZZHENG-MB1

Timers On : Mon Aug 10 11:11:30 2020
Timers Off: Mon Aug 10 11:12:25 2020

Wall Time:       54.74 seconds

                                                       Time (seconds)
Module                                       User      System        Wall        Calls

--------------------------------------------------------------------------------------

**************************************************************************************

Host: ZLZZHENG-MB1

Timers On : Mon Aug 10 11:16:06 2020
Timers Off: Mon Aug 10 11:16:42 2020

Wall Time:       36.65 seconds

                                                       Time (seconds)
Module                                       User      System        Wall        Calls

--------------------------------------------------------------------------------------

**************************************************************************************

Host: ZLZZHENG-MB1

Timers On : Mon Aug 10 11:21:19 2020
Timers Off: Mon Aug 10 11:22:13 2020

Wall Time:       54.47 seconds

                                                       Time (seconds)
Module                                       User      System        Wall        Calls

--------------------------------------------------------------------------------------

**************************************************************************************

Host: ZLZZHENG-MB1

Timers On : Mon Aug 10 11:23:52 2020
Timers Off: Mon Aug 10 11:24:47 2020

Wall Time:       55.54 seconds

                                                       Time (seconds)
Module                                       User      System        Wall        Calls

--------------------------------------------------------------------------------------

**************************************************************************************

Host: ZLZZHENG-MB1

Timers On : Mon Aug 10 11:24:56 2020
Timers Off: Mon Aug 10 11:25:27 2020

Wall Time:       30.95 seconds

                                                       Time (seconds)
Module                                       User      System        Wall        Calls

--------------------------------------------------------------------------------------

**************************************************************************************

Host: ZLZZHENG-MB1

Timers On : Mon Aug 10 11:28:43 2020
Timers Off: Mon Aug 10 11:28:43 2020

Wall Time:        0.98 seconds

                                                       Time (seconds)
Module                                       User      System        Wall        Calls

--------------------------------------------------------------------------------------

**************************************************************************************
