
Host: ZLZZHENG-MB1

Timers On : Mon Aug 10 14:59:50 2020
Timers Off: Mon Aug 10 14:59:51 2020

Wall Time:        0.77 seconds

                                                       Time (seconds)
Module                                       User      System        Wall        Calls

--------------------------------------------------------------------------------------

**************************************************************************************
