
Host: ZLZZHENG-MB1

Timers On : Sat Aug  8 16:18:54 2020
Timers Off: Sat Aug  8 16:18:57 2020

Wall Time:        2.66 seconds

                                                       Time (seconds)
Module                                       User      System        Wall        Calls

--------------------------------------------------------------------------------------

**************************************************************************************

Host: ZLZZHENG-MB1

Timers On : Sat Aug  8 16:19:30 2020
Timers Off: Sat Aug  8 16:19:30 2020

Wall Time:        0.31 seconds

                                                       Time (seconds)
Module                                       User      System        Wall        Calls

--------------------------------------------------------------------------------------

**************************************************************************************

Host: ZLZZHENG-MB1

Timers On : Sat Aug  8 16:19:43 2020
Timers Off: Sat Aug  8 16:19:44 2020

Wall Time:        0.32 seconds

                                                       Time (seconds)
Module                                       User      System        Wall        Calls

--------------------------------------------------------------------------------------

**************************************************************************************

Host: ZLZZHENG-MB1

Timers On : Sat Aug  8 16:20:01 2020
Timers Off: Sat Aug  8 16:20:03 2020

Wall Time:        2.48 seconds

                                                       Time (seconds)
Module                                       User      System        Wall        Calls

--------------------------------------------------------------------------------------

**************************************************************************************

Host: ZLZZHENG-MB1

Timers On : Sat Aug  8 16:20:31 2020
Timers Off: Sat Aug  8 16:20:33 2020

Wall Time:        2.48 seconds

                                                       Time (seconds)
Module                                       User      System        Wall        Calls

--------------------------------------------------------------------------------------

**************************************************************************************

Host: ZLZZHENG-MB1

Timers On : Sat Aug  8 16:21:33 2020
Timers Off: Sat Aug  8 16:22:52 2020

Wall Time:       79.41 seconds

                                                       Time (seconds)
Module                                       User      System        Wall        Calls

--------------------------------------------------------------------------------------

**************************************************************************************

Host: ZLZZHENG-MB1

Timers On : Sat Aug  8 16:23:22 2020
Timers Off: Sat Aug  8 16:25:34 2020

Wall Time:      132.16 seconds

                                                       Time (seconds)
Module                                       User      System        Wall        Calls

--------------------------------------------------------------------------------------

**************************************************************************************

Host: ZLZZHENG-MB1

Timers On : Sat Aug  8 16:25:37 2020
Timers Off: Sat Aug  8 16:25:58 2020

Wall Time:       21.46 seconds

                                                       Time (seconds)
Module                                       User      System        Wall        Calls

--------------------------------------------------------------------------------------

**************************************************************************************

Host: ZLZZHENG-MB1

Timers On : Sat Aug  8 16:27:14 2020
Timers Off: Sat Aug  8 16:27:28 2020

Wall Time:       13.86 seconds

                                                       Time (seconds)
Module                                       User      System        Wall        Calls

--------------------------------------------------------------------------------------

**************************************************************************************

Host: ZLZZHENG-MB1

Timers On : Sat Aug  8 16:29:08 2020
Timers Off: Sat Aug  8 16:29:24 2020

Wall Time:       16.19 seconds

                                                       Time (seconds)
Module                                       User      System        Wall        Calls

--------------------------------------------------------------------------------------

**************************************************************************************

Host: ZLZZHENG-MB1

Timers On : Sat Aug  8 16:35:20 2020
Timers Off: Sat Aug  8 16:35:21 2020

Wall Time:        0.53 seconds

                                                       Time (seconds)
Module                                       User      System        Wall        Calls

--------------------------------------------------------------------------------------

**************************************************************************************

Host: ZLZZHENG-MB1

Timers On : Sat Aug  8 16:35:46 2020
Timers Off: Sat Aug  8 16:35:46 2020

Wall Time:        0.34 seconds

                                                       Time (seconds)
Module                                       User      System        Wall        Calls

--------------------------------------------------------------------------------------

**************************************************************************************

Host: ZLZZHENG-MB1

Timers On : Sat Aug  8 16:36:29 2020
Timers Off: Sat Aug  8 16:36:29 2020

Wall Time:        0.33 seconds

                                                       Time (seconds)
Module                                       User      System        Wall        Calls

--------------------------------------------------------------------------------------

**************************************************************************************

Host: ZLZZHENG-MB1

Timers On : Sat Aug  8 16:37:09 2020
Timers Off: Sat Aug  8 16:37:10 2020

Wall Time:        0.32 seconds

                                                       Time (seconds)
Module                                       User      System        Wall        Calls

--------------------------------------------------------------------------------------

**************************************************************************************

Host: ZLZZHENG-MB1

Timers On : Sat Aug  8 16:37:24 2020
Timers Off: Sat Aug  8 16:37:24 2020

Wall Time:        0.32 seconds

                                                       Time (seconds)
Module                                       User      System        Wall        Calls

--------------------------------------------------------------------------------------

**************************************************************************************

Host: ZLZZHENG-MB1

Timers On : Sat Aug  8 16:38:57 2020
Timers Off: Sat Aug  8 16:38:58 2020

Wall Time:        0.50 seconds

                                                       Time (seconds)
Module                                       User      System        Wall        Calls

--------------------------------------------------------------------------------------

**************************************************************************************

Host: ZLZZHENG-MB1

Timers On : Sat Aug  8 16:40:08 2020
Timers Off: Sat Aug  8 16:40:08 2020

Wall Time:        0.52 seconds

                                                       Time (seconds)
Module                                       User      System        Wall        Calls

--------------------------------------------------------------------------------------

**************************************************************************************

Host: ZLZZHENG-MB1

Timers On : Sat Aug  8 16:41:01 2020
Timers Off: Sat Aug  8 16:41:02 2020

Wall Time:        0.48 seconds

                                                       Time (seconds)
Module                                       User      System        Wall        Calls

--------------------------------------------------------------------------------------

**************************************************************************************

Host: ZLZZHENG-MB1

Timers On : Sat Aug  8 16:43:09 2020
Timers Off: Sat Aug  8 16:43:10 2020

Wall Time:        0.52 seconds

                                                       Time (seconds)
Module                                       User      System        Wall        Calls

--------------------------------------------------------------------------------------

**************************************************************************************

Host: ZLZZHENG-MB1

Timers On : Sat Aug  8 16:44:59 2020
Timers Off: Sat Aug  8 16:44:59 2020

Wall Time:        0.53 seconds

                                                       Time (seconds)
Module                                       User      System        Wall        Calls

--------------------------------------------------------------------------------------

**************************************************************************************

Host: ZLZZHENG-MB1

Timers On : Sat Aug  8 16:46:16 2020
Timers Off: Sat Aug  8 16:46:17 2020

Wall Time:        0.48 seconds

                                                       Time (seconds)
Module                                       User      System        Wall        Calls

--------------------------------------------------------------------------------------

**************************************************************************************

Host: ZLZZHENG-MB1

Timers On : Sat Aug  8 16:46:49 2020
Timers Off: Sat Aug  8 16:46:53 2020

Wall Time:        3.87 seconds

                                                       Time (seconds)
Module                                       User      System        Wall        Calls

--------------------------------------------------------------------------------------

**************************************************************************************

Host: ZLZZHENG-MB1

Timers On : Sat Aug  8 16:47:26 2020
Timers Off: Sat Aug  8 16:51:31 2020

Wall Time:      245.45 seconds

                                                       Time (seconds)
Module                                       User      System        Wall        Calls

--------------------------------------------------------------------------------------

**************************************************************************************

Host: ZLZZHENG-MB1

Timers On : Sat Aug  8 16:53:42 2020
Timers Off: Sat Aug  8 16:54:24 2020

Wall Time:       42.16 seconds

                                                       Time (seconds)
Module                                       User      System        Wall        Calls

--------------------------------------------------------------------------------------

**************************************************************************************

Host: ZLZZHENG-MB1

Timers On : Sat Aug  8 16:54:27 2020
Timers Off: Sat Aug  8 16:58:06 2020

Wall Time:      219.80 seconds

                                                       Time (seconds)
Module                                       User      System        Wall        Calls

--------------------------------------------------------------------------------------

**************************************************************************************
